# vtk DataFile Version 3.0
#This file was generated by the deal.II library on 2023/3/22 at 22:25:50
ASCII
DATASET UNSTRUCTURED_GRID

POINTS 512 double
0 0 0
0.01 0 0
0 0.01 0
0.01 0.01 0
0 0 0.01
0.01 0 0.01
0 0.01 0.01
0.01 0.01 0.01
0.01 0 0
0.02 0 0
0.01 0.01 0
0.02 0.01 0
0.01 0 0.01
0.02 0 0.01
0.01 0.01 0.01
0.02 0.01 0.01
0.02 0 0
0.03 0 0
0.02 0.01 0
0.03 0.01 0
0.02 0 0.01
0.03 0 0.01
0.02 0.01 0.01
0.03 0.01 0.01
0.03 0 0
0.04 0 0
0.03 0.01 0
0.04 0.01 0
0.03 0 0.01
0.04 0 0.01
0.03 0.01 0.01
0.04 0.01 0.01
0 0.01 0
0.01 0.01 0
0 0.02 0
0.01 0.02 0
0 0.01 0.01
0.01 0.01 0.01
0 0.02 0.01
0.01 0.02 0.01
0.01 0.01 0
0.02 0.01 0
0.01 0.02 0
0.02 0.02 0
0.01 0.01 0.01
0.02 0.01 0.01
0.01 0.02 0.01
0.02 0.02 0.01
0.02 0.01 0
0.03 0.01 0
0.02 0.02 0
0.03 0.02 0
0.02 0.01 0.01
0.03 0.01 0.01
0.02 0.02 0.01
0.03 0.02 0.01
0.03 0.01 0
0.04 0.01 0
0.03 0.02 0
0.04 0.02 0
0.03 0.01 0.01
0.04 0.01 0.01
0.03 0.02 0.01
0.04 0.02 0.01
0 0.02 0
0.01 0.02 0
0 0.03 0
0.01 0.03 0
0 0.02 0.01
0.01 0.02 0.01
0 0.03 0.01
0.01 0.03 0.01
0.01 0.02 0
0.02 0.02 0
0.01 0.03 0
0.02 0.03 0
0.01 0.02 0.01
0.02 0.02 0.01
0.01 0.03 0.01
0.02 0.03 0.01
0.02 0.02 0
0.03 0.02 0
0.02 0.03 0
0.03 0.03 0
0.02 0.02 0.01
0.03 0.02 0.01
0.02 0.03 0.01
0.03 0.03 0.01
0.03 0.02 0
0.04 0.02 0
0.03 0.03 0
0.04 0.03 0
0.03 0.02 0.01
0.04 0.02 0.01
0.03 0.03 0.01
0.04 0.03 0.01
0 0.03 0
0.01 0.03 0
0 0.04 0
0.01 0.04 0
0 0.03 0.01
0.01 0.03 0.01
0 0.04 0.01
0.01 0.04 0.01
0.01 0.03 0
0.02 0.03 0
0.01 0.04 0
0.02 0.04 0
0.01 0.03 0.01
0.02 0.03 0.01
0.01 0.04 0.01
0.02 0.04 0.01
0.02 0.03 0
0.03 0.03 0
0.02 0.04 0
0.03 0.04 0
0.02 0.03 0.01
0.03 0.03 0.01
0.02 0.04 0.01
0.03 0.04 0.01
0.03 0.03 0
0.04 0.03 0
0.03 0.04 0
0.04 0.04 0
0.03 0.03 0.01
0.04 0.03 0.01
0.03 0.04 0.01
0.04 0.04 0.01
0 0.04 0
0.01 0.04 0
0 0.05 0
0.01 0.05 0
0 0.04 0.01
0.01 0.04 0.01
0 0.05 0.01
0.01 0.05 0.01
0.01 0.04 0
0.02 0.04 0
0.01 0.05 0
0.02 0.05 0
0.01 0.04 0.01
0.02 0.04 0.01
0.01 0.05 0.01
0.02 0.05 0.01
0.02 0.04 0
0.03 0.04 0
0.02 0.05 0
0.03 0.05 0
0.02 0.04 0.01
0.03 0.04 0.01
0.02 0.05 0.01
0.03 0.05 0.01
0.03 0.04 0
0.04 0.04 0
0.03 0.05 0
0.04 0.05 0
0.03 0.04 0.01
0.04 0.04 0.01
0.03 0.05 0.01
0.04 0.05 0.01
0 0.05 0
0.01 0.05 0
0 0.06 0
0.01 0.06 0
0 0.05 0.01
0.01 0.05 0.01
0 0.06 0.01
0.01 0.06 0.01
0.01 0.05 0
0.02 0.05 0
0.01 0.06 0
0.02 0.06 0
0.01 0.05 0.01
0.02 0.05 0.01
0.01 0.06 0.01
0.02 0.06 0.01
0.02 0.05 0
0.03 0.05 0
0.02 0.06 0
0.03 0.06 0
0.02 0.05 0.01
0.03 0.05 0.01
0.02 0.06 0.01
0.03 0.06 0.01
0.03 0.05 0
0.04 0.05 0
0.03 0.06 0
0.04 0.06 0
0.03 0.05 0.01
0.04 0.05 0.01
0.03 0.06 0.01
0.04 0.06 0.01
0 0.06 0
0.01 0.06 0
0 0.07 0
0.01 0.07 0
0 0.06 0.01
0.01 0.06 0.01
0 0.07 0.01
0.01 0.07 0.01
0.01 0.06 0
0.02 0.06 0
0.01 0.07 0
0.02 0.07 0
0.01 0.06 0.01
0.02 0.06 0.01
0.01 0.07 0.01
0.02 0.07 0.01
0.02 0.06 0
0.03 0.06 0
0.02 0.07 0
0.03 0.07 0
0.02 0.06 0.01
0.03 0.06 0.01
0.02 0.07 0.01
0.03 0.07 0.01
0.03 0.06 0
0.04 0.06 0
0.03 0.07 0
0.04 0.07 0
0.03 0.06 0.01
0.04 0.06 0.01
0.03 0.07 0.01
0.04 0.07 0.01
0 0.07 0
0.01 0.07 0
0 0.08 0
0.01 0.08 0
0 0.07 0.01
0.01 0.07 0.01
0 0.08 0.01
0.01 0.08 0.01
0.01 0.07 0
0.02 0.07 0
0.01 0.08 0
0.02 0.08 0
0.01 0.07 0.01
0.02 0.07 0.01
0.01 0.08 0.01
0.02 0.08 0.01
0.02 0.07 0
0.03 0.07 0
0.02 0.08 0
0.03 0.08 0
0.02 0.07 0.01
0.03 0.07 0.01
0.02 0.08 0.01
0.03 0.08 0.01
0.03 0.07 0
0.04 0.07 0
0.03 0.08 0
0.04 0.08 0
0.03 0.07 0.01
0.04 0.07 0.01
0.03 0.08 0.01
0.04 0.08 0.01
0 0 0.01
0.01 0 0.01
0 0.01 0.01
0.01 0.01 0.01
0 0 0.02
0.01 0 0.02
0 0.01 0.02
0.01 0.01 0.02
0.01 0 0.01
0.02 0 0.01
0.01 0.01 0.01
0.02 0.01 0.01
0.01 0 0.02
0.02 0 0.02
0.01 0.01 0.02
0.02 0.01 0.02
0.02 0 0.01
0.03 0 0.01
0.02 0.01 0.01
0.03 0.01 0.01
0.02 0 0.02
0.03 0 0.02
0.02 0.01 0.02
0.03 0.01 0.02
0.03 0 0.01
0.04 0 0.01
0.03 0.01 0.01
0.04 0.01 0.01
0.03 0 0.02
0.04 0 0.02
0.03 0.01 0.02
0.04 0.01 0.02
0 0.01 0.01
0.01 0.01 0.01
0 0.02 0.01
0.01 0.02 0.01
0 0.01 0.02
0.01 0.01 0.02
0 0.02 0.02
0.01 0.02 0.02
0.01 0.01 0.01
0.02 0.01 0.01
0.01 0.02 0.01
0.02 0.02 0.01
0.01 0.01 0.02
0.02 0.01 0.02
0.01 0.02 0.02
0.02 0.02 0.02
0.02 0.01 0.01
0.03 0.01 0.01
0.02 0.02 0.01
0.03 0.02 0.01
0.02 0.01 0.02
0.03 0.01 0.02
0.02 0.02 0.02
0.03 0.02 0.02
0.03 0.01 0.01
0.04 0.01 0.01
0.03 0.02 0.01
0.04 0.02 0.01
0.03 0.01 0.02
0.04 0.01 0.02
0.03 0.02 0.02
0.04 0.02 0.02
0 0.02 0.01
0.01 0.02 0.01
0 0.03 0.01
0.01 0.03 0.01
0 0.02 0.02
0.01 0.02 0.02
0 0.03 0.02
0.01 0.03 0.02
0.01 0.02 0.01
0.02 0.02 0.01
0.01 0.03 0.01
0.02 0.03 0.01
0.01 0.02 0.02
0.02 0.02 0.02
0.01 0.03 0.02
0.02 0.03 0.02
0.02 0.02 0.01
0.03 0.02 0.01
0.02 0.03 0.01
0.03 0.03 0.01
0.02 0.02 0.02
0.03 0.02 0.02
0.02 0.03 0.02
0.03 0.03 0.02
0.03 0.02 0.01
0.04 0.02 0.01
0.03 0.03 0.01
0.04 0.03 0.01
0.03 0.02 0.02
0.04 0.02 0.02
0.03 0.03 0.02
0.04 0.03 0.02
0 0.03 0.01
0.01 0.03 0.01
0 0.04 0.01
0.01 0.04 0.01
0 0.03 0.02
0.01 0.03 0.02
0 0.04 0.02
0.01 0.04 0.02
0.01 0.03 0.01
0.02 0.03 0.01
0.01 0.04 0.01
0.02 0.04 0.01
0.01 0.03 0.02
0.02 0.03 0.02
0.01 0.04 0.02
0.02 0.04 0.02
0.02 0.03 0.01
0.03 0.03 0.01
0.02 0.04 0.01
0.03 0.04 0.01
0.02 0.03 0.02
0.03 0.03 0.02
0.02 0.04 0.02
0.03 0.04 0.02
0.03 0.03 0.01
0.04 0.03 0.01
0.03 0.04 0.01
0.04 0.04 0.01
0.03 0.03 0.02
0.04 0.03 0.02
0.03 0.04 0.02
0.04 0.04 0.02
0 0.04 0.01
0.01 0.04 0.01
0 0.05 0.01
0.01 0.05 0.01
0 0.04 0.02
0.01 0.04 0.02
0 0.05 0.02
0.01 0.05 0.02
0.01 0.04 0.01
0.02 0.04 0.01
0.01 0.05 0.01
0.02 0.05 0.01
0.01 0.04 0.02
0.02 0.04 0.02
0.01 0.05 0.02
0.02 0.05 0.02
0.02 0.04 0.01
0.03 0.04 0.01
0.02 0.05 0.01
0.03 0.05 0.01
0.02 0.04 0.02
0.03 0.04 0.02
0.02 0.05 0.02
0.03 0.05 0.02
0.03 0.04 0.01
0.04 0.04 0.01
0.03 0.05 0.01
0.04 0.05 0.01
0.03 0.04 0.02
0.04 0.04 0.02
0.03 0.05 0.02
0.04 0.05 0.02
0 0.05 0.01
0.01 0.05 0.01
0 0.06 0.01
0.01 0.06 0.01
0 0.05 0.02
0.01 0.05 0.02
0 0.06 0.02
0.01 0.06 0.02
0.01 0.05 0.01
0.02 0.05 0.01
0.01 0.06 0.01
0.02 0.06 0.01
0.01 0.05 0.02
0.02 0.05 0.02
0.01 0.06 0.02
0.02 0.06 0.02
0.02 0.05 0.01
0.03 0.05 0.01
0.02 0.06 0.01
0.03 0.06 0.01
0.02 0.05 0.02
0.03 0.05 0.02
0.02 0.06 0.02
0.03 0.06 0.02
0.03 0.05 0.01
0.04 0.05 0.01
0.03 0.06 0.01
0.04 0.06 0.01
0.03 0.05 0.02
0.04 0.05 0.02
0.03 0.06 0.02
0.04 0.06 0.02
0 0.06 0.01
0.01 0.06 0.01
0 0.07 0.01
0.01 0.07 0.01
0 0.06 0.02
0.01 0.06 0.02
0 0.07 0.02
0.01 0.07 0.02
0.01 0.06 0.01
0.02 0.06 0.01
0.01 0.07 0.01
0.02 0.07 0.01
0.01 0.06 0.02
0.02 0.06 0.02
0.01 0.07 0.02
0.02 0.07 0.02
0.02 0.06 0.01
0.03 0.06 0.01
0.02 0.07 0.01
0.03 0.07 0.01
0.02 0.06 0.02
0.03 0.06 0.02
0.02 0.07 0.02
0.03 0.07 0.02
0.03 0.06 0.01
0.04 0.06 0.01
0.03 0.07 0.01
0.04 0.07 0.01
0.03 0.06 0.02
0.04 0.06 0.02
0.03 0.07 0.02
0.04 0.07 0.02
0 0.07 0.01
0.01 0.07 0.01
0 0.08 0.01
0.01 0.08 0.01
0 0.07 0.02
0.01 0.07 0.02
0 0.08 0.02
0.01 0.08 0.02
0.01 0.07 0.01
0.02 0.07 0.01
0.01 0.08 0.01
0.02 0.08 0.01
0.01 0.07 0.02
0.02 0.07 0.02
0.01 0.08 0.02
0.02 0.08 0.02
0.02 0.07 0.01
0.03 0.07 0.01
0.02 0.08 0.01
0.03 0.08 0.01
0.02 0.07 0.02
0.03 0.07 0.02
0.02 0.08 0.02
0.03 0.08 0.02
0.03 0.07 0.01
0.04 0.07 0.01
0.03 0.08 0.01
0.04 0.08 0.01
0.03 0.07 0.02
0.04 0.07 0.02
0.03 0.08 0.02
0.04 0.08 0.02

CELLS 64 576
8	0	1	3	2	4	5	7	6
8	8	9	11	10	12	13	15	14
8	16	17	19	18	20	21	23	22
8	24	25	27	26	28	29	31	30
8	32	33	35	34	36	37	39	38
8	40	41	43	42	44	45	47	46
8	48	49	51	50	52	53	55	54
8	56	57	59	58	60	61	63	62
8	64	65	67	66	68	69	71	70
8	72	73	75	74	76	77	79	78
8	80	81	83	82	84	85	87	86
8	88	89	91	90	92	93	95	94
8	96	97	99	98	100	101	103	102
8	104	105	107	106	108	109	111	110
8	112	113	115	114	116	117	119	118
8	120	121	123	122	124	125	127	126
8	128	129	131	130	132	133	135	134
8	136	137	139	138	140	141	143	142
8	144	145	147	146	148	149	151	150
8	152	153	155	154	156	157	159	158
8	160	161	163	162	164	165	167	166
8	168	169	171	170	172	173	175	174
8	176	177	179	178	180	181	183	182
8	184	185	187	186	188	189	191	190
8	192	193	195	194	196	197	199	198
8	200	201	203	202	204	205	207	206
8	208	209	211	210	212	213	215	214
8	216	217	219	218	220	221	223	222
8	224	225	227	226	228	229	231	230
8	232	233	235	234	236	237	239	238
8	240	241	243	242	244	245	247	246
8	248	249	251	250	252	253	255	254
8	256	257	259	258	260	261	263	262
8	264	265	267	266	268	269	271	270
8	272	273	275	274	276	277	279	278
8	280	281	283	282	284	285	287	286
8	288	289	291	290	292	293	295	294
8	296	297	299	298	300	301	303	302
8	304	305	307	306	308	309	311	310
8	312	313	315	314	316	317	319	318
8	320	321	323	322	324	325	327	326
8	328	329	331	330	332	333	335	334
8	336	337	339	338	340	341	343	342
8	344	345	347	346	348	349	351	350
8	352	353	355	354	356	357	359	358
8	360	361	363	362	364	365	367	366
8	368	369	371	370	372	373	375	374
8	376	377	379	378	380	381	383	382
8	384	385	387	386	388	389	391	390
8	392	393	395	394	396	397	399	398
8	400	401	403	402	404	405	407	406
8	408	409	411	410	412	413	415	414
8	416	417	419	418	420	421	423	422
8	424	425	427	426	428	429	431	430
8	432	433	435	434	436	437	439	438
8	440	441	443	442	444	445	447	446
8	448	449	451	450	452	453	455	454
8	456	457	459	458	460	461	463	462
8	464	465	467	466	468	469	471	470
8	472	473	475	474	476	477	479	478
8	480	481	483	482	484	485	487	486
8	488	489	491	490	492	493	495	494
8	496	497	499	498	500	501	503	502
8	504	505	507	506	508	509	511	510

CELL_TYPES 64
 12 12 12 12 12 12 12 12 12 12 12 12 12 12 12 12 12 12 12 12 12 12 12 12 12 12 12 12 12 12 12 12 12 12 12 12 12 12 12 12 12 12 12 12 12 12 12 12 12 12 12 12 12 12 12 12 12 12 12 12 12 12 12 12
POINT_DATA 512
SCALARS D double 1
LOOKUP_TABLE default
300 -168.021 301 -566.342 301 1057.55 302 106.086 -168.021 -302.626 -566.342 68.9 1057.55 -449.946 106.086 -368.262 -302.626 -277.057 68.9 -37.096 -449.946 -71.2424 -368.262 -32.0954 -277.057 310 -37.096 311.033 -71.2424 311.033 -32.0954 312.067 301 -566.342 302 -367.679 302 106.086 303 61.1067 -566.342 68.9 -367.679 303.166 106.086 -368.262 61.1067 835.834 68.9 -37.096 303.166 -24.0761 -368.262 -32.0954 835.834 -40.2284 -37.096 311.033 -24.0761 312.067 -32.0954 312.067 -40.2284 313.1 302 -367.679 303 479.985 303 61.1067 304 1078.52 -367.679 303.166 479.985 -56.9415 61.1067 835.834 1078.52 184.347 303.166 -24.0761 -56.9415 -91.5885 835.834 -40.2284 184.347 -131.082 -24.0761 312.067 -91.5885 313.1 -40.2284 313.1 -131.082 314.133 303 479.985 304 -979.753 304 1078.52 305 350.57 479.985 -56.9415 -979.753 922.47 1078.52 184.347 350.57 -797.098 -56.9415 -91.5885 922.47 -166.562 184.347 -131.082 -797.098 -315.741 -91.5885 313.1 -166.562 314.133 -131.082 314.133 -315.741 315.167 304 -979.753 305 812.817 305 350.57 306 -237.649 -979.753 922.47 812.817 425.089 350.57 -797.098 -237.649 284.905 922.47 -166.562 425.089 -620.255 -797.098 -315.741 284.905 -363.919 -166.562 314.133 -620.255 315.167 -315.741 315.167 -363.919 316.2 305 812.817 306 284.304 306 -237.649 307 40.9537 812.817 425.089 284.304 158.962 -237.649 284.905 40.9537 214.196 425.089 -620.255 158.962 -9.61468 284.905 -363.919 214.196 -225.983 -620.255 315.167 -9.61468 316.2 -363.919 316.2 -225.983 317.233 306 284.304 307 -379.029 307 40.9537 308 41.6606 284.304 158.962 -379.029 -73.9318 40.9537 214.196 41.6606 685.29 158.962 -9.61468 -73.9318 438.403 214.196 -225.983 685.29 268.053 -9.61468 316.2 438.403 317.233 -225.983 317.233 268.053 318.267 307 -379.029 308 -1370.64 308 41.6606 309 449.082 -379.029 -73.9318 -1370.64 -845.806 41.6606 685.29 449.082 1144.35 -73.9318 438.403 -845.806 398.136 685.29 268.053 1144.35 414.217 438.403 317.233 398.136 318.267 268.053 318.267 414.217 319.3 301 1057.55 302 106.086 302 63.4276 303 3827.52 1057.55 -449.946 106.086 -368.262 63.4276 -520.546 3827.52 24.5405 -449.946 -71.2424 -368.262 -32.0954 -520.546 97.2734 24.5405 -83.2859 -71.2424 311.033 -32.0954 312.067 97.2734 312.067 -83.2859 313.1 302 106.086 303 61.1067 303 3827.52 304 -885.678 106.086 -368.262 61.1067 835.834 3827.52 24.5405 -885.678 9.97498 -368.262 -32.0954 835.834 -40.2284 24.5405 -83.2859 9.97498 -58.6956 -32.0954 312.067 -40.2284 313.1 -83.2859 313.1 -58.6956 314.133 303 61.1067 304 1078.52 304 -885.678 305 -505.244 61.1067 835.834 1078.52 184.347 -885.678 9.97498 -505.244 333.546 835.834 -40.2284 184.347 -131.082 9.97498 -58.6956 333.546 -268.97 -40.2284 313.1 -131.082 314.133 -58.6956 314.133 -268.97 315.167 304 1078.52 305 350.57 305 -505.244 306 -342.258 1078.52 184.347 350.57 -797.098 -505.244 333.546 -342.258 -263.262 184.347 -131.082 -797.098 -315.741 333.546 -268.97 -263.262 -318.346 -131.082 314.133 -315.741 315.167 -268.97 315.167 -318.346 316.2 305 350.57 306 -237.649 306 -342.258 307 144.14 350.57 -797.098 -237.649 284.905 -342.258 -263.262 144.14 -379.612 -797.098 -315.741 284.905 -363.919 -263.262 -318.346 -379.612 -313.229 -315.741 315.167 -363.919 316.2 -318.346 316.2 -313.229 317.233 306 -237.649 307 40.9537 307 144.14 308 -109.326 -237.649 284.905 40.9537 214.196 144.14 -379.612 -109.326 897.413 284.905 -363.919 214.196 -225.983 -379.612 -313.229 897.413 -330.519 -363.919 316.2 -225.983 317.233 -313.229 317.233 -330.519 318.267 307 40.9537 308 41.6606 308 -109.326 309 76.0158 40.9537 214.196 41.6606 685.29 -109.326 897.413 76.0158 609.939 214.196 -225.983 685.29 268.053 897.413 -330.519 609.939 251.8 -225.983 317.233 268.053 318.267 -330.519 318.267 251.8 319.3 308 41.6606 309 449.082 309 76.0158 310 1175.69 41.6606 685.29 449.082 1144.35 76.0158 609.939 1175.69 42.3968 685.29 268.053 1144.35 414.217 609.939 251.8 42.3968 586.03 268.053 318.267 414.217 319.3 251.8 319.3 586.03 320.333 
